Program Version,EnergyPlus, Version 8.4.0-09f5359d8a, YMD=2018.02.14 16:20
1,5,Environment Title[],Latitude[deg],Longitude[deg],Time Zone[],Elevation[m]
2,6,Day of Simulation[],Month[],Day of Month[],DST Indicator[1=yes 0=no],Hour[],StartMinute[],EndMinute[],DayType
3,3,Cumulative Day of Simulation[],Month[],Day of Month[],DST Indicator[1=yes 0=no],DayType  ! When Daily Report Variables Requested
4,2,Cumulative Days of Simulation[],Month[]  ! When Monthly Report Variables Requested
5,1,Cumulative Days of Simulation[] ! When Run Period Report Variables Requested
6,1,Environment,Site Outdoor Air Drybulb Temperature [C] !TimeStep
7,1,Environment,Site Outdoor Air Relative Humidity [%] !TimeStep
8,1,Environment,Site Wind Speed [m/s] !TimeStep
9,1,Environment,Site Wind Direction [deg] !TimeStep
10,1,Environment,Site Diffuse Solar Radiation Rate per Area [W/m2] !TimeStep
11,1,Environment,Site Direct Solar Radiation Rate per Area [W/m2] !TimeStep
12,1,Environment,Site Outdoor Air Enthalpy [J/kg] !TimeStep
13,1,Environment,Site Outdoor Air Density [kg/m3] !TimeStep
14,1,Environment,Site Rain Status [] !TimeStep
231,1,BLOCK5:ZONE1,Zone Mean Air Temperature [C] !TimeStep,ON
232,1,BLOCK1:ZONE4,Zone Mean Air Temperature [C] !TimeStep,ON
233,1,BLOCK1:ZONE3,Zone Mean Air Temperature [C] !TimeStep,ON
234,1,BLOCK1:ZONE7,Zone Mean Air Temperature [C] !TimeStep,ON
235,1,BLOCK1:ZONE6,Zone Mean Air Temperature [C] !TimeStep,ON
236,1,BLOCK1:ZONE5,Zone Mean Air Temperature [C] !TimeStep,ON
237,1,BLOCK1:ZONE1,Zone Mean Air Temperature [C] !TimeStep,ON
238,1,BLOCK1:ZONE2,Zone Mean Air Temperature [C] !TimeStep,ON
239,1,BLOCK3:ZONE1,Zone Mean Air Temperature [C] !TimeStep,ON
240,1,BLOCK6:ZONE1,Zone Mean Air Temperature [C] !TimeStep,ON
241,1,BLOCK2:ZONE1,Zone Mean Air Temperature [C] !TimeStep,ON
727,1,PEOPLE BLOCK5:ZONE1,Zone Thermal Comfort Fanger Model PMV [] !TimeStep,ON
728,1,PEOPLE BLOCK1:ZONE4,Zone Thermal Comfort Fanger Model PMV [] !TimeStep,ON
729,1,PEOPLE BLOCK1:ZONE3,Zone Thermal Comfort Fanger Model PMV [] !TimeStep,ON
730,1,PEOPLE BLOCK1:ZONE7,Zone Thermal Comfort Fanger Model PMV [] !TimeStep,ON
731,1,PEOPLE BLOCK1:ZONE6,Zone Thermal Comfort Fanger Model PMV [] !TimeStep,ON
732,1,PEOPLE BLOCK1:ZONE5,Zone Thermal Comfort Fanger Model PMV [] !TimeStep,ON
733,1,PEOPLE BLOCK1:ZONE1,Zone Thermal Comfort Fanger Model PMV [] !TimeStep,ON
734,1,PEOPLE BLOCK1:ZONE2,Zone Thermal Comfort Fanger Model PMV [] !TimeStep,ON
735,1,PEOPLE BLOCK3:ZONE1,Zone Thermal Comfort Fanger Model PMV [] !TimeStep,ON
736,1,PEOPLE BLOCK6:ZONE1,Zone Thermal Comfort Fanger Model PMV [] !TimeStep,ON
737,1,PEOPLE BLOCK2:ZONE1,Zone Thermal Comfort Fanger Model PMV [] !TimeStep,ON
End of Data Dictionary
1,VERAOTODASABERTAS, -29.70, -53.70,  -3.00, 114.00
2,1, 9, 1, 0, 1, 0.00,60.00,Friday
6,12.
7,88.
8,1.9
9,230.
10,0.0
11,0.0
12,31572.2790550218
13,1.21295314099828
231,18.7827133046864
232,16.3516983844061
233,18.8086209618506
234,14.0517262516292
235,19.0428827997893
236,15.0658250910856
237,17.3576390435195
238,18.2899104344444
239,13.2433738880763
240,15.5141707329999
241,13.7784879936158
727,-1.17548299298841
728,-1.75068228123655
729,-3.81974086450807
730,-1.29333058497833
731,-3.49570731586135
732,-0.884639724730403
733,-1.07933377475206
734,-1.19744768045247
735,-2.5549465897971
736,-1.18913209989537
737,-2.50132131398608
14,0.0
2,1, 9, 1, 0, 2, 0.00,60.00,Friday
6,11.1
7,87.
8,2.
9,230.
10,0.0
11,0.0
12,29303.1249343966
13,1.21783044568513
231,18.8074516163059
232,16.2470529692034
233,18.4350116459581
234,17.4007586249745
235,19.3548732650305
236,17.2970272765549
237,17.7300611510986
238,17.9915170349893
239,13.117905737397
240,17.5180193564433
241,13.5880537265877
727,-1.15242776007365
728,-1.78483501127498
729,-3.70816395664415
730,-2.39061973344059
731,-3.56722927945105
732,-1.66314744041566
733,-1.41677447631664
734,-1.27934126353717
735,-2.55488227707146
736,-1.73352556084991
737,-2.41735147191495
14,0.0
2,1, 9, 1, 0, 3, 0.00,60.00,Friday
6,10.2
7,87.
8,2.1
9,230.
10,0.0
11,0.0
12,27319.1901926612
13,1.22252177757105
231,18.6824662336364
232,16.2463626363513
233,18.4761164935152
234,19.3996020451825
235,19.5668385532705
236,18.8863787972472
237,17.9032228928045
238,18.4511066150857
239,12.8764266012726
240,18.177758319044
241,13.2208947691421
727,-1.14826648285076
728,-1.80022421282468
729,-3.80961842665757
730,-1.86620062077744
731,-3.53752008915013
732,-1.37710727070177
733,-1.37293977116432
734,-1.3209728237076
735,-2.59267759092587
736,-1.43647731404825
737,-2.46985175231036
14,0.0
2,1, 9, 1, 0, 4, 0.00,60.00,Friday
6,9.3
7,87.
8,2.2
9,230.
10,0.0
11,0.0
12,25376.9910255415
13,1.22843395669116
231,18.6130624653288
232,16.0828152893168
233,17.864276187905
234,19.8758950186465
235,19.1411744436427
236,19.40435080993
237,18.0910385668469
238,18.2242414280324
239,12.4962569839443
240,18.2564934005994
241,12.7800731093623
727,-1.16555286493484
728,-1.80894222390577
729,-3.83131127607789
730,-1.55395972598633
731,-3.49954954393481
732,-1.16754119006304
733,-1.35110945382811
734,-1.26853900843075
735,-2.65882246140846
736,-1.34534381649608
737,-2.55723071354499
14,0.0
2,1, 9, 1, 0, 5, 0.00,60.00,Friday
6,8.8
7,87.
8,2.2
9,230.
10,0.0
11,0.0
12,24331.4702341255
13,1.23103049552874
231,18.5745522457341
232,16.0183329013281
233,18.2965834219674
234,20.0946249184095
235,19.7195252241126
236,19.6137241376469
237,18.8507854107578
238,18.4575295344635
239,12.1012711184333
240,18.2231726667432
241,12.3166044891126
727,-1.17731664243433
728,-1.84637158404271
729,-3.96131697549747
730,-1.48741781394789
731,-3.62738432587612
732,-1.11618485218601
733,-1.33056336780589
734,-1.31046147215977
735,-2.75076889922801
736,-1.34087196782744
737,-2.65991150386692
14,0.0
2,1, 9, 1, 0, 6, 0.00,60.00,Friday
6,8.4
7,88.
8,2.1
9,230.
10,0.0
11,0.0
12,23666.5522161908
13,1.23420661517073
231,18.544643835784
232,15.8498080710227
233,18.3876889144634
234,20.1265757342662
235,19.1084972227771
236,19.6433672110625
237,19.1756507158733
238,18.2452761401905
239,11.6937706679124
240,18.1367681665565
241,11.9352990907437
727,-1.18509899243344
728,-1.87240360083074
729,-3.86115377186725
730,-1.45889594765763
731,-3.50583758355322
732,-1.104352292254
733,-1.23464667796893
734,-1.29051393484248
735,-2.84572923309931
736,-1.35527700642242
737,-2.76086332399989
14,0.0
2,1, 9, 1, 0, 7, 0.00,60.00,Friday
6,7.9
7,89.
8,2.1
9,230.
10,0.0
11,0.0
12,22813.672442712
13,1.23667224522589
231,18.5040029654954
232,15.7777548752905
233,17.8813403075045
234,20.0897510901804
235,19.9640540782295
236,19.5932279385189
237,19.130989241437
238,18.5164657295512
239,11.3804008775252
240,18.0189797589385
241,11.5601078483108
727,-1.19258665313709
728,-1.91188615048353
729,-3.87007445429719
730,-1.46311264327687
731,-3.65917062225997
732,-1.12066804301642
733,-1.198722526081
734,-1.32979118514415
735,-2.93954684471501
736,-1.38030807757
737,-2.8494255705139
14,0.0
2,1, 9, 1, 0, 8, 0.00,60.00,Friday
6,8.6
7,84.
8,2.3
9,230.
10,78.
11,43.
12,23371.4042314481
13,1.23371948196014
231,18.5471844250474
232,16.0148415468961
233,19.3680660878722
234,19.6412314264513
235,19.1681172813193
236,19.2893959629142
237,17.9891601462953
238,18.953873306168
239,13.4570433960846
240,18.0007362328131
241,12.6864905972816
727,-1.2016064037031
728,-1.93082397163747
729,-3.96443356398229
730,-1.4723666570528
731,-3.50132814007332
732,-1.10469418339618
733,-1.20285843161671
734,-1.29753374887473
735,-2.90801159099045
736,-1.39372497347985
737,-2.80507088191751
14,0.0
2,1, 9, 1, 0, 9, 0.00,60.00,Friday
6,9.3
7,79.
8,2.6
9,270.
10,100.
11,147.
12,23874.520061799
13,1.23082377667705
231,18.5548741438536
232,15.9474180622363
233,19.6455225580705
234,19.17922311192
235,19.1361784718974
236,19.0170443893495
237,17.8060989645697
238,18.4738346015606
239,14.0427081970714
240,18.0002280361456
241,15.0936203689137
727,-1.19846666008872
728,-1.90100388578042
729,-3.65690212713849
730,-1.54994169776232
731,-3.66327809513963
732,-1.11139467309881
733,-1.36407271671932
734,-1.2390680423157
735,-2.49333366276347
736,-1.3891334012139
737,-2.41213103851096
14,0.0
2,1, 9, 1, 0,10, 0.00,60.00,Friday
6,10.
7,75.
8,2.8
9,270.
10,113.
11,203.
12,24527.7857734055
13,1.22660639686672
231,18.5846469568003
232,16.0548569619046
233,19.7119333201957
234,19.0780996011198
235,19.3839865492146
236,19.1282788950315
237,17.7965501632514
238,18.4025120999988
239,15.8259560694879
240,18.0001308377462
241,17.7996388261701
727,-1.20065198244883
728,-1.90619274621612
729,-3.59973173400254
730,-1.62179809866059
731,-3.67518965161966
732,-1.09186103996725
733,-1.39333417748617
734,-1.29810943598347
735,-2.27507145247805
736,-1.37471567454755
737,-1.78937486843084
14,0.0
2,1, 9, 1, 0,11, 0.00,60.00,Friday
6,10.7
7,71.
8,3.1
9,270.
10,273.
11,152.
12,25121.5901339522
13,1.22367199802342
231,18.6060199001601
232,16.1531405452721
233,19.6907171386973
234,19.3189541297835
235,19.8662386369079
236,19.5353354360399
237,17.9824723544151
238,18.3754993649281
239,16.8445840678209
240,18.2004886743692
241,20.4547951889902
727,-1.19865817172908
728,-1.88048179434159
729,-3.5803313340919
730,-1.60682171776234
731,-3.60554903010687
732,-0.980224291161792
733,-1.38388567832317
734,-1.30248248169896
735,-1.82792048976605
736,-1.32418062700438
737,-1.1225887640766
14,0.0
2,1, 9, 1, 0,12, 0.00,60.00,Friday
6,11.3
7,67.
8,3.3
9,270.
10,371.
11,122.
12,25484.7466128442
13,1.22006674129311
231,18.618747993516
232,16.5641159897647
233,19.7095974424898
234,19.6210640936916
235,19.1265587356984
236,19.924810008911
237,18.1495873523449
238,19.2266374388133
239,18.8251860722708
240,18.837692248535
241,22.7337672721058
727,-1.1977479936543
728,-1.84794515251406
729,-3.57926095341006
730,-1.53215340499493
731,-3.49328733355056
732,-0.829602095347797
733,-1.34395591960225
734,-1.29329801137619
735,-1.47241250918851
736,-1.23064087931746
737,-0.494851451134721
14,0.0
2,1, 9, 1, 0,13, 0.00,60.00,Friday
6,12.
7,64.
8,3.6
9,270.
10,344.
11,96.
12,26202.2601674522
13,1.21706640949154
231,18.5681993311881
232,17.3163107588117
233,17.398707854874
234,19.7439163235145
235,21.4686644255804
236,20.0904116132084
237,17.7830790080826
238,20.9380577254422
239,20.3859047604847
240,19.1105971328606
241,23.4480901536924
727,-1.19788341953821
728,-1.77355157135201
729,-3.57177357438287
730,-1.46785161841952
731,-3.65725784472957
732,-0.746125558055658
733,-1.31250868576885
734,-1.17408844745675
735,-1.04251330775377
736,-1.10240827967573
737,-9.096988421405765E-02
14,0.0
2,1, 9, 1, 0,14, 0.00,60.00,Friday
6,12.7
7,60.
8,3.8
9,270.
10,246.
11,83.
12,26665.1281741797
13,1.21306770486198
231,18.6600803615639
232,17.1006917768958
233,19.5120612960953
234,19.7220382141215
235,18.8885352917468
236,20.0977601598923
237,18.271041457219
238,19.3472932089702
239,19.482722636089
240,19.3701835331246
241,23.2817083675897
727,-1.20800448207566
728,-1.66279121501957
729,-4.0913886916502
730,-1.4494253209248
731,-3.19850367019874
732,-0.719151125230259
733,-1.37261702062097
734,-0.945714803694878
735,-0.865899106119002
736,-1.04609199307367
737,5.587895304376375E-03
14,0.0
2,1, 9, 1, 0,15, 0.00,60.00,Friday
6,13.4
7,57.
8,4.1
9,320.
10,226.
11,14.
12,27298.5103914998
13,1.21016328090291
231,18.7455393163571
232,17.0779142391062
233,19.83690654428
234,19.3723663914083
235,19.1255738655282
236,19.6681053997281
237,18.6472284438913
238,19.2532724926978
239,19.736003834104
240,19.6277748543016
241,21.7434751968739
727,-1.19707080899637
728,-1.67918845658497
729,-3.6399548571557
730,-1.45919435151248
731,-3.72865005183658
732,-0.749653395722122
733,-1.30659746581347
734,-1.16738927025803
735,-1.01670072275861
736,-1.00369339846322
737,-0.147794425558552
14,0.0
2,1, 9, 1, 0,16, 0.00,60.00,Friday
6,13.
7,61.
8,3.4
9,320.
10,83.
11,43.
12,27472.22877951
13,1.21261826211732
231,18.7523706248768
232,18.7080381621606
233,18.5468596463315
234,20.5003270416033
235,21.892959402171
236,20.490104298463
237,18.8016515623038
238,22.9648352094024
239,20.8873673049253
240,19.7942946126686
241,20.4504978458569
727,-1.18577957798742
728,-1.67093634223321
729,-3.56953788303711
730,-1.53586724050211
731,-3.6611902196536
732,-0.856806769230786
733,-1.26851030668924
734,-1.17042506342841
735,-1.05708904184451
736,-0.981751018761746
737,-0.516636582966843
14,0.0
2,1, 9, 1, 0,17, 0.00,60.00,Friday
6,12.7
7,65.
8,2.7
9,320.
10,124.
11,22.
12,27819.7466863072
13,1.21339153558059
231,18.733613364518
232,17.256817720024
233,19.3779268224532
234,19.4458333977783
235,18.9617092067002
236,19.7663179304935
237,18.4666961808226
238,19.1774262078671
239,19.4257186039852
240,19.7876873329776
241,19.5884487259779
727,-1.18452344167793
728,-1.4500036399219
729,-3.89353237095439
730,-1.36626406224829
731,-3.10465194880039
732,-0.770966598209793
733,-1.27521433662851
734,-0.663550998598222
735,-0.912507463849371
736,-0.959806422546224
737,-0.802651137155568
14,0.0
2,1, 9, 1, 0,18, 0.00,60.00,Friday
6,12.3
7,70.
8,2.
9,320.
10,79.
11,38.
12,28142.5340295704
13,1.21574155009309
231,18.7644079459574
232,17.1936810196506
233,17.3450125047323
234,19.7537512698593
235,19.2652373850703
236,19.7243392128883
237,18.6395573872211
238,19.2655348636377
239,19.796676212997
240,19.896951519786
241,18.804072229069
727,-1.18517824196037
728,-1.64176590329394
729,-3.68937087452327
730,-1.52175398758709
731,-3.69477669691
732,-0.884839035458551
733,-1.30496607823109
734,-1.16879636902
735,-1.17489014240187
736,-0.963285438441925
737,-1.01145493038456
14,0.0
2,1, 9, 1, 0,19, 0.00,60.00,Friday
6,12.
7,74.
8,1.4
9,320.
10,0.0
11,0.0
12,28402.4850431601
13,1.2177963986154
231,18.7703436086929
232,17.2835465071934
233,19.3753451859799
234,20.124839314709
235,19.5580185263701
236,20.0420824435334
237,19.2102668259599
238,19.7781672012615
239,19.5546613545262
240,19.8839346753249
241,17.2343058427556
727,-1.17953227313558
728,-1.65215429535891
729,-4.13641873923789
730,-1.47637450396908
731,-3.62664564934838
732,-0.933571474227593
733,-1.29208983706096
734,-1.16480578633528
735,-1.20718941819614
736,-0.969360882714246
737,-1.30136334611965
14,0.0
2,1, 9, 1, 0,20, 0.00,60.00,Friday
6,11.6
7,80.
8,0.7
9,320.
10,0.0
11,0.0
12,28869.4777480178
13,1.21883531485239
231,18.7519925789543
232,17.1128779733037
233,19.8947303522127
234,20.0183489661516
235,19.2364563430293
236,19.9001720067385
237,18.9785515394083
238,19.3827466257694
239,16.5482274626699
240,19.7256519251594
241,16.0470489273496
727,-1.17638178033721
728,-1.64566746939089
729,-3.69089377806077
730,-1.42179084758714
731,-3.56463251631857
732,-0.915646242694982
733,-1.21600100174385
734,-1.08747398087684
735,-1.35782177491051
736,-0.9885591238039
737,-1.64474154390007
14,0.0
2,1, 9, 1, 0,21, 0.00,60.00,Friday
6,11.3
7,85.
8,0.0
9,0.0
10,0.0
11,0.0
12,29270.2766926507
13,1.22078888257039
231,18.73792574695
232,17.1185080492582
233,18.3753061333645
234,20.7476697119668
235,19.7270480365361
236,20.3356467100722
237,19.7420617798033
238,20.0594320573146
239,15.4469524175358
240,19.5817670654597
241,15.1530905303893
727,-1.17528563686105
728,-1.67059779134319
729,-3.56950664566971
730,-1.43053590674127
731,-3.59742935004555
732,-0.944056799148002
733,-1.24423150929014
734,-1.14427285680587
735,-1.87523063679539
736,-1.02642522078763
737,-1.90274449208288
14,0.0
2,1, 9, 1, 0,22, 0.00,60.00,Friday
6,10.7
7,86.
8,0.0
9,0.0
10,0.0
11,0.0
12,28156.2449456594
13,1.22375769495389
231,18.7002339179165
232,16.9570997363667
233,18.1985224101873
234,20.7972825000676
235,19.1953826584967
236,20.4587790119649
237,19.7781327831929
238,19.7881368710239
239,14.6182877261518
240,19.4052199685151
241,14.4227000713182
727,-1.1732078042481
728,-1.67190408224061
729,-3.86790809290531
730,-1.32061031296325
731,-3.49578386857959
732,-0.897147022977629
733,-1.12718208005553
734,-1.04126628631665
735,-2.10542281180126
736,-1.06443661891296
737,-2.11114031557039
14,0.0
2,1, 9, 1, 0,23, 0.00,60.00,Friday
6,10.1
7,87.
8,0.0
9,0.0
10,0.0
11,0.0
12,27051.3748302525
13,1.22673258201536
231,18.672174646001
232,16.6462830228792
233,18.221234100663
234,20.8832821089928
235,19.651072970641
236,20.467253911798
237,19.8188676893439
238,18.9058970805896
239,13.8861606386123
240,19.2268542879872
241,13.7313859510503
727,-1.17119677426702
728,-1.69450622287304
729,-3.88642783925085
730,-1.31574827052884
731,-3.59056359688787
732,-0.898662789614879
733,-1.11800006062055
734,-1.07945802336643
735,-2.2850475088272
736,-1.10995003299959
737,-2.28767283178494
14,0.0
2,1, 9, 1, 0,24, 0.00,60.00,Friday
6,9.6
7,89.
8,0.1
9,0.0
10,0.0
11,0.0
12,26342.3546763718
13,1.23027668676795
231,18.6440312185043
232,16.4882335793468
233,18.1826563589421
234,20.8356673039053
235,18.9782353193952
236,20.411302100089
237,19.7826703803276
238,18.6517043527044
239,13.219547198206
240,19.0340856967553
241,13.1195816092894
727,-1.17376897200356
728,-1.74707024349874
729,-3.9136977089849
730,-1.30612890393085
731,-3.48641841940306
732,-0.914894678280458
733,-1.11084724869709
734,-1.2041622824428
735,-2.45269464477843
736,-1.15380551806939
737,-2.44977643383926
14,0.0
2,2, 9, 2, 0, 1, 0.00,60.00,Saturday
6,9.
7,90.
8,0.1
9,0.0
10,0.0
11,0.0
12,25245.9926950434
13,1.23327167345257
231,18.6116558478068
232,16.3676287521343
233,18.2353246959893
234,20.7691098008812
235,19.6686572979941
236,20.3267368162342
237,19.724245800581
238,18.7546134728309
239,12.6480866642215
240,18.8310487408823
241,12.5650101081061
727,-1.17708024588357
728,-1.78124520827158
729,-3.91511248898046
730,-1.31930687078731
731,-3.64462930179503
732,-0.941663633402255
733,-1.11662359945536
734,-1.24817968856067
735,-2.60426024481923
736,-1.2010688074211
737,-2.59427400275758
14,0.0
2,2, 9, 2, 0, 2, 0.00,60.00,Saturday
6,8.4
7,92.
8,0.1
9,0.0
10,0.0
11,0.0
12,24333.7933145797
13,1.23613600003925
231,18.5805867357534
232,16.1897604368432
233,18.4390390439281
234,20.6628338154625
235,19.1305034210357
236,20.2019105376351
237,19.6276316627536
238,18.5182156330079
239,12.0746996649388
240,18.6240931330884
241,12.0057436554425
727,-1.18197677357794
728,-1.81187819023099
729,-3.89127218913459
730,-1.33674404735183
731,-3.49601860610452
732,-0.9734852846992
733,-1.12723102951293
734,-1.24187394527231
735,-2.7415215318284
736,-1.25008395806506
737,-2.72937070952594
14,0.0
2,2, 9, 2, 0, 3, 0.00,60.00,Saturday
6,7.8
7,93.
8,0.1
9,0.0
10,0.0
11,0.0
12,23249.6634792194
13,1.23914768956231
231,18.5468585166516
232,16.2196014715342
233,18.0393875445858
234,20.5924182037662
235,19.9720437741135
236,20.1146792128892
237,19.560687716803
238,19.0071312302698
239,11.5946351139319
240,18.403289933046
241,11.4581604353652
727,-1.1875671491713
728,-1.85005219927563
729,-3.88807531265248
730,-1.36184496694241
731,-3.63514435701838
732,-1.01168084867224
733,-1.14478420795748
734,-1.28336435510945
735,-2.87658472043365
736,-1.29851254693078
737,-2.86429658640209
14,0.0
2,2, 9, 2, 0, 4, 0.00,60.00,Saturday
6,7.2
7,95.
8,0.1
9,0.0
10,0.0
11,0.0
12,22335.998845824
13,1.24203871931867
231,18.5139093625207
232,16.3643192060228
233,19.3879145234986
234,20.5167741716071
235,21.7200600265149
236,20.0205793736649
237,19.4882069015846
238,19.7721387234736
239,11.167004582197
240,18.1626038080743
241,10.8970578408306
727,-1.19462239645942
728,-1.86453405955913
729,-4.01736442282277
730,-1.38255967705539
731,-3.48396041499856
732,-1.04499017481702
733,-1.15886739036852
734,-1.23426556540867
735,-2.99957952596707
736,-1.35117961814173
737,-2.99780370182671
14,0.0
2,2, 9, 2, 0, 5, 0.00,60.00,Saturday
6,6.7
7,97.
8,0.2
9,0.0
10,0.0
11,0.0
12,21608.8653857755
13,1.24566393321327
231,18.4750538922354
232,15.6344894862863
233,19.8459380746885
234,20.3511577442882
235,18.5363390149375
236,19.8456014225775
237,19.3340483206228
238,18.4208996894319
239,10.4165328772933
240,18.0127764916822
241,10.435860287167
727,-1.20168104704959
728,-1.85798320173757
729,-3.70932864876369
730,-1.40460356984382
731,-3.11578203609022
732,-1.07712962155611
733,-1.17388980600668
734,-1.13960230115154
735,-3.10773284236781
736,-1.40712435659613
737,-3.1256934928554
14,0.0
2,2, 9, 2, 0, 6, 0.00,60.00,Saturday
6,6.1
7,98.
8,0.2
9,0.0
10,0.0
11,0.0
12,20539.5493834602
13,1.24870436473622
231,18.4362061097786
232,15.842971428366
233,19.7908131007968
234,20.2486152827084
235,20.2541409049043
236,19.7274360448539
237,19.2365885136644
238,18.9859505987748
239,10.0942003545081
240,18.0010643168032
241,9.8939937494592
727,-1.21039955210909
728,-1.97797951091794
729,-3.60966066540584
730,-1.44211400681908
731,-3.79781956235266
732,-1.12509336863115
733,-1.20343110737637
734,-1.32706694297593
735,-3.27133075586973
736,-1.44872510634893
737,-3.24377536131003
14,0.0
2,2, 9, 2, 0, 7, 0.00,60.00,Saturday
6,5.5
7,100.
8,0.2
9,0.0
10,0.0
11,0.0
12,19622.9103670462
13,1.25163716047504
231,18.391203027011
232,15.443308494738
233,19.7873153188152
234,20.1187123996658
235,19.05511570242
236,19.5854762684491
237,19.1058555049172
238,18.251844470531
239,9.41412603687497
240,18.0003421201321
241,9.33566837262367
727,-1.21995450922954
728,-1.96863506812038
729,-3.62173530175812
730,-1.46954524296622
731,-3.46296026091955
732,-1.16484329597924
733,-1.22504179612235
734,-1.2662092025736
735,-3.37298774963349
736,-1.46926043628724
737,-3.3761099979963
14,0.0
2,2, 9, 2, 0, 8, 0.00,60.00,Saturday
6,7.2
7,100.
8,0.3
9,0.0
10,47.
11,163.
12,23138.8791349275
13,1.24140748030528
231,18.4940206316559
232,15.5337594238071
233,19.8439353603932
234,19.7945042059344
235,19.5627692859333
236,19.3935136398148
237,17.959811498204
238,18.4571601236714
239,10.1075802851072
240,18.0000733677867
241,11.9085094059786
727,-1.23027602055583
728,-2.0264420013941
729,-3.61749499025011
730,-1.49451624642466
731,-3.7130853832005
732,-1.15386966233311
733,-1.24117151045903
734,-1.36456500980275
735,-3.41158104036568
736,-1.46592244508991
737,-3.27579390660661
14,0.0
2,2, 9, 2, 0, 9, 0.00,60.00,Saturday
6,8.8
7,92.
8,0.5
9,50.
10,97.
11,471.
12,25181.7180214627
13,1.23403798920273
231,18.5815430047366
232,15.649542742539
233,19.083029873828
234,19.1851541889202
235,19.084662165279
236,19.2239114903513
237,17.7821783000959
238,18.1239836882384
239,12.681023095083
240,18.0000255934335
241,17.2336014570126
727,-1.21436427260746
728,-2.00289204109496
729,-3.59490832434397
730,-1.54081850427471
731,-3.5775215941525
732,-1.06515800140218
733,-1.39371158811048
734,-1.3281898487822
735,-3.05282799376418
736,-1.43823949629339
737,-2.31462257318282
14,0.0
2,2, 9, 2, 0,10, 0.00,60.00,Saturday
6,10.4
7,83.
8,0.7
9,50.
10,136.
11,610.
12,26901.3505988324
13,1.22578684994881
231,18.6577884479902
232,16.0297896357767
233,19.7134175328719
234,19.6939062943526
235,19.0165331918323
236,20.0487450699213
237,18.0205171084379
238,18.6148586401848
239,16.1960137844065
240,17.9998183794486
241,23.5492798820618
727,-1.20002489346065
728,-1.96716740059322
729,-3.73855326205687
730,-1.60643421359825
731,-3.66190757470948
732,-0.901413173417557
733,-1.40942120942704
734,-1.35574506774919
735,-2.28668414635918
736,-1.38602979404685
737,-0.901847520355787
14,0.0
2,2, 9, 2, 0,11, 0.00,60.00,Saturday
6,12.1
7,74.
8,0.8
9,50.
10,188.
11,586.
12,28596.9127869554
13,1.21850712658064
231,18.7201589153375
232,16.2097311888753
233,19.4503988031572
234,19.7767988162772
235,19.8243784496549
236,20.4421409546953
237,18.5672228322694
238,18.651366716441
239,19.1804370790765
240,18.7129933562779
241,28.4145813998629
727,-1.18650660839339
728,-1.89034223103366
729,-3.6052157368442
730,-1.48564013222774
731,-3.67549201594624
732,-0.590572262032487
733,-1.36191788078241
734,-1.26476891995392
735,-1.36262982400335
736,-1.3134223754307
737,0.537602463994919
14,0.0
2,2, 9, 2, 0,12, 0.00,60.00,Saturday
6,13.7
7,67.
8,1.
9,50.
10,201.
11,684.
12,30330.5173770378
13,1.21042723445431
231,18.7519830108414
232,16.5341631083239
233,19.4808497289271
234,19.6510991679448
235,19.8608278159068
236,20.6485976403248
237,18.6618181203268
238,19.2530975645441
239,20.3127536168454
240,19.5519111396467
241,33.0905362394146
727,-1.17434174089523
728,-1.83973749669638
729,-3.64915789081087
730,-1.42172337460882
731,-3.48654182183465
732,-0.351633093666799
733,-1.270176830897
734,-1.2364260605501
735,-0.489912355753962
736,-1.11505847567274
737,1.77656971255066
14,0.0
2,2, 9, 2, 0,13, 0.00,60.00,Saturday
6,15.3
7,60.
8,1.2
9,50.
10,178.
11,729.
12,31842.5753234975
13,1.20380034886455
231,18.8447527438755
232,16.8741102049739
233,19.6015840834376
234,19.9920187886151
235,19.3459504731927
236,21.1712192844211
237,19.1059454422893
238,19.6663187757048
239,21.7969541561785
240,20.0687251944862
241,36.8863800732024
727,-1.16588935992692
728,-1.76836513791274
729,-3.62918998909711
730,-1.39138637245002
731,-3.46200170322638
732,-0.183821928893976
733,-1.23997902693748
734,-1.1309970130893
735,-1.914783318463154E-02
736,-0.901123696611312
737,2.89857732585601
14,0.0
2,2, 9, 2, 0,14, 0.00,60.00,Saturday
6,17.
7,54.
8,1.3
9,50.
10,231.
11,576.
12,33640.4597384004
13,1.19550692183785
231,18.9551657603582
232,17.2056143335541
233,19.7517802703583
234,20.2659925333021
235,19.0432777881839
236,21.5137982030136
237,19.4167571977119
238,19.750404767645
239,22.8148613749119
240,20.9318515263779
241,38.7176128721716
727,-1.14804184982195
728,-1.68786449732033
729,-3.58790180028808
730,-1.29677749719517
731,-3.54719180294723
732,-2.185635785242784E-02
733,-1.1523646586986
734,-1.04542426998716
735,0.392225606663326
736,-0.748015002267553
737,3.65731445682022
14,0.0
2,2, 9, 2, 0,15, 0.00,60.00,Saturday
6,18.6
7,49.
8,1.5
9,230.
10,211.
11,620.
12,35328.949907562
13,1.18890485366937
231,19.0658090101913
232,17.53646787377
233,19.9203830842421
234,20.0520665708161
235,19.7747325149906
236,27.637121218819
237,19.570935786101
238,19.8695248276339
239,23.2094044559702
240,21.120119785644
241,41.4042070849035
727,-1.12730244001668
728,-1.60605070499634
729,-3.53711946249971
730,-1.20774020621943
731,-3.6060276097788
732,0.115716635902955
733,-1.08665750781755
734,-1.01202071927369
735,0.610505816455544
736,-0.5432044020638
737,4.26458527453613
14,0.0
2,2, 9, 2, 0,16, 0.00,60.00,Saturday
6,17.6
7,53.
8,1.2
9,230.
10,154.
11,584.
12,34576.2699847301
13,1.19279594447524
231,19.0897325309026
232,17.9015585217768
233,19.5991812564093
234,20.6985897640395
235,19.5075041541605
236,21.7896813432101
237,19.7013433792469
238,20.3444387389076
239,23.138582138393
240,21.5527623103298
241,41.1210172442588
727,-1.10700102345442
728,-1.52518821239728
729,-3.49230499801549
730,-1.21343775389209
731,-3.43528584345894
732,0.989332780446043
733,-1.05458788847618
734,-0.980111021781621
735,0.610751069718704
736,-0.477723680021091
737,4.62756418542878
14,0.0
2,2, 9, 2, 0,17, 0.00,60.00,Saturday
6,16.5
7,59.
8,1.
9,230.
10,111.
11,436.
12,34109.9253073091
13,1.19683503181641
231,19.1060767343391
232,17.8796747039418
233,19.1669315788133
234,19.8805104716899
235,19.3455966338526
236,21.2788677663458
237,19.5059927975761
238,19.8723483743434
239,22.0947128818728
240,21.6932281370003
241,38.322104890919
727,-1.09882241401657
728,-1.44751246252345
729,-3.53562422940671
730,-1.1107425411187
731,-3.47945082707432
732,9.501587105178465E-02
733,-1.02977306887187
734,-0.906054382164998
735,0.391660489791663
736,-0.41837153300952
737,4.28530821542119
14,0.0
2,2, 9, 2, 0,18, 0.00,60.00,Saturday
6,15.5
7,64.
8,0.7
9,230.
10,56.
11,187.
12,33403.9769164989
13,1.20074605530154
231,19.0870274617143
232,17.8499696679302
233,18.7274010617166
234,19.7215974284376
235,19.0389768390068
236,20.8597555004784
237,19.1121782522905
238,19.6758758054429
239,20.8682990247332
240,21.5309798502666
241,33.50221325421
727,-1.09251892408491
728,-1.4329153554421
729,-3.613140785665
730,-1.24684579431443
731,-3.49577872352186
732,-0.108586735039375
733,-1.05724191835006
734,-0.966427063458424
735,-6.381488128892128E-02
736,-0.4294590364044
737,3.25930472537285
14,0.0
2,2, 9, 2, 0,19, 0.00,60.00,Saturday
6,14.5
7,70.
8,0.5
9,230.
10,0.0
11,0.0
12,32846.1553506807
13,1.2045718276017
231,19.0067638949692
232,17.9371101889094
233,18.8481519739622
234,20.2455791094514
235,19.0080888391446
236,21.1886433858375
237,19.4710176642279
238,19.918815954015
239,20.1352458716648
240,21.3732636210119
241,28.5358155476297
727,-1.09199378461138
728,-1.42941980352664
729,-3.68234376579837
730,-1.29146562556933
731,-3.53793327557331
732,-0.277892565144282
733,-1.11319070502713
734,-0.993456065824859
735,-0.544048468227507
736,-0.501884151612044
737,1.96061849627579
14,0.0
2,2, 9, 2, 0,20, 0.00,60.00,Saturday
6,13.4
7,77.
8,0.2
9,230.
10,0.0
11,0.0
12,32172.6298976184
13,1.20885622128258
231,18.9781321553836
232,17.8505332662891
233,18.967301529762
234,20.1564460589498
235,19.0206815511752
236,20.9326961590883
237,19.3920358637845
238,19.6982157099154
239,19.5569185692349
240,21.1345518920602
241,24.3282559133285
727,-1.09728854496112
728,-1.41340035431606
729,-3.65048775860526
730,-1.2141559621742
731,-3.54767937145424
732,-0.285063742092352
733,-1.06003373809268
734,-0.95639273785368
735,-0.880121648344335
736,-0.558669495137635
737,0.849999687163365
14,0.0
2,2, 9, 2, 0,21, 0.00,60.00,Saturday
6,12.4
7,84.
8,0.0
9,0.0
10,0.0
11,0.0
12,31565.9222894716
13,1.21277519066474
231,18.9544224401431
232,18.0248021598534
233,18.9269643150757
234,22.0380373649779
235,19.1173684191478
236,22.2927478753151
237,20.8580815150409
238,20.6728907032923
239,17.9711851204805
240,21.4530998158942
241,21.6518038802119
727,-1.09714546624964
728,-1.4318735930553
729,-3.60428739249173
730,-1.22828526305502
731,-3.53201303638043
732,-0.367261789298737
733,-1.07653167328806
734,-0.990094553491475
735,-1.13134361682086
736,-0.628724390319504
737,-5.233927973363820E-02
14,0.0
2,2, 9, 2, 0,22, 0.00,60.00,Saturday
6,11.7
7,86.
8,0.0
9,0.0
10,0.0
11,0.0
12,30420.6579535544
13,1.21608631677993
231,18.9154187427275
232,17.9267126272119
233,18.8015633129274
234,22.2280121236926
235,19.4572958242298
236,22.4713730882746
237,20.9413281505686
238,20.761893800263
239,16.7583749698729
240,21.1535164344346
241,19.5394481103362
727,-1.09640742840471
728,-1.4139997732943
729,-3.60836296660991
730,-0.931303059127171
731,-3.50811779398886
732,-0.201544050675177