Program Version,EnergyPlus, Version 8.4.0-09f5359d8a, YMD=2018.01.22 14:51
1,5,Environment Title[],Latitude[deg],Longitude[deg],Time Zone[],Elevation[m]
2,6,Day of Simulation[],Month[],Day of Month[],DST Indicator[1=yes 0=no],Hour[],StartMinute[],EndMinute[],DayType
3,3,Cumulative Day of Simulation[],Month[],Day of Month[],DST Indicator[1=yes 0=no],DayType  ! When Daily Report Variables Requested
4,2,Cumulative Days of Simulation[],Month[]  ! When Monthly Report Variables Requested
5,1,Cumulative Days of Simulation[] ! When Run Period Report Variables Requested
6,1,Environment,Site Outdoor Air Drybulb Temperature [C] !TimeStep
7,1,Environment,Site Outdoor Air Relative Humidity [%] !TimeStep
8,1,Environment,Site Wind Speed [m/s] !TimeStep
9,1,Environment,Site Wind Direction [deg] !TimeStep
10,1,Environment,Site Diffuse Solar Radiation Rate per Area [W/m2] !TimeStep
11,1,Environment,Site Direct Solar Radiation Rate per Area [W/m2] !TimeStep
12,1,Environment,Site Outdoor Air Enthalpy [J/kg] !TimeStep
13,1,Environment,Site Outdoor Air Density [kg/m3] !TimeStep
14,1,Environment,Site Rain Status [] !TimeStep
231,1,BLOCK5:ZONE1,Zone Mean Air Temperature [C] !TimeStep,ON
232,1,BLOCK1:ZONE4,Zone Mean Air Temperature [C] !TimeStep,ON
233,1,BLOCK1:ZONE3,Zone Mean Air Temperature [C] !TimeStep,ON
234,1,BLOCK1:ZONE7,Zone Mean Air Temperature [C] !TimeStep,ON
235,1,BLOCK1:ZONE6,Zone Mean Air Temperature [C] !TimeStep,ON
236,1,BLOCK1:ZONE5,Zone Mean Air Temperature [C] !TimeStep,ON
237,1,BLOCK1:ZONE1,Zone Mean Air Temperature [C] !TimeStep,ON
238,1,BLOCK1:ZONE2,Zone Mean Air Temperature [C] !TimeStep,ON
239,1,BLOCK3:ZONE1,Zone Mean Air Temperature [C] !TimeStep,ON
240,1,BLOCK6:ZONE1,Zone Mean Air Temperature [C] !TimeStep,ON
241,1,BLOCK2:ZONE1,Zone Mean Air Temperature [C] !TimeStep,ON
727,1,PEOPLE BLOCK5:ZONE1,Zone Thermal Comfort Fanger Model PMV [] !TimeStep,ON
728,1,PEOPLE BLOCK1:ZONE4,Zone Thermal Comfort Fanger Model PMV [] !TimeStep,ON
729,1,PEOPLE BLOCK1:ZONE3,Zone Thermal Comfort Fanger Model PMV [] !TimeStep,ON
730,1,PEOPLE BLOCK1:ZONE7,Zone Thermal Comfort Fanger Model PMV [] !TimeStep,ON
731,1,PEOPLE BLOCK1:ZONE6,Zone Thermal Comfort Fanger Model PMV [] !TimeStep,ON
732,1,PEOPLE BLOCK1:ZONE5,Zone Thermal Comfort Fanger Model PMV [] !TimeStep,ON
733,1,PEOPLE BLOCK1:ZONE1,Zone Thermal Comfort Fanger Model PMV [] !TimeStep,ON
734,1,PEOPLE BLOCK1:ZONE2,Zone Thermal Comfort Fanger Model PMV [] !TimeStep,ON
735,1,PEOPLE BLOCK3:ZONE1,Zone Thermal Comfort Fanger Model PMV [] !TimeStep,ON
736,1,PEOPLE BLOCK6:ZONE1,Zone Thermal Comfort Fanger Model PMV [] !TimeStep,ON
737,1,PEOPLE BLOCK2:ZONE1,Zone Thermal Comfort Fanger Model PMV [] !TimeStep,ON
End of Data Dictionary
1,VERAOTODASABERTAS, -29.70, -53.70,  -3.00, 114.00
2,1,12, 1, 1, 1, 0.00,60.00,Friday
6,20.4
7,84.
8,2.1
9,50.
10,0.0
11,0.0
12,53186.231997607
13,1.1547480561176
231,22.110429011186
232,23.5011954133078
233,22.8329809966785
234,23.108122020774
235,22.7742779400828
236,23.7715475117503
237,23.7089705320736
238,23.2060945275772
239,22.0773622889099
240,23.0482280798732
241,23.0031864457814
727,-1.140311100586
728,-0.752799807920888
729,-3.32156406413524
730,-0.444862368161103
731,-3.26508273968927
732,-9.431067541494223E-02
733,-0.344491357881825
734,-0.636947479434398
735,-1.38158094443415
736,7.040139567764811E-02
737,-1.15162170565856
14,0.0
2,1,12, 1, 1, 2, 0.00,60.00,Friday
6,19.2
7,89.
8,1.9
9,50.
10,0.0
11,0.0
12,51402.1557741352
13,1.15988372586622
231,21.6736496980496
232,22.9822094920873
233,21.7915573249799
234,21.8658900696898
235,21.7348325836504
236,22.7366301608508
237,22.8440051039098
238,22.4843205461146
239,21.8150441993107
240,22.3928197474609
241,22.4335891064404
727,-1.12390350241843
728,-0.794681240360248
729,-3.23220990365947
730,-1.03323182637774
731,-3.20854218775899
732,-0.476238971605552
733,-0.6255331039941
734,-0.733837744086078
735,-1.29130867524265
736,-0.651904188280311
737,-1.1674274512755
14,0.0
2,1,12, 1, 1, 3, 0.00,60.00,Friday
6,18.1
7,93.
8,1.6
9,50.
10,0.0
11,0.0
12,49434.456437651
13,1.16604325118033
231,21.2796069545606
232,22.462905362457
233,20.9778063753438
234,20.7773710402993
235,20.9005465033651
236,21.7774727487136
237,22.0400866467621
238,21.8251098431222
239,21.4818560970927
240,21.5605737708201
241,21.8793088457371
727,-1.20890402457222
728,-0.895163463136086
729,-3.55844142847435
730,-1.34514046731433
731,-3.53997971921898
732,-0.722401638040278
733,-0.800450605967266
734,-0.879853273379128
735,-1.38984613962935
736,-0.844975230662115
737,-1.3450870816648
14,0.0
2,1,12, 1, 1, 4, 0.00,60.00,Friday
6,16.9
7,99.
8,1.4
9,50.
10,0.0
11,0.0
12,47750.0529212415
13,1.17237459818018
231,20.8975285321066
232,22.5980086852892
233,22.0203772374036
234,19.6995649862757
235,21.9719911676275
236,20.5816052069979
237,22.8812278581594
238,22.374261258367
239,20.6828843131377
240,20.3013138134417
241,21.1143055790758
727,-1.30462016368782
728,-1.02625699900393
729,-3.84810383182708
730,-1.653144974987
731,-3.8415463904149
732,-0.979061262676711
733,-0.992920327120787
734,-1.04273068769036
735,-1.52848312806647
736,-1.08579796744648
737,-1.54119752631966
14,0.0
2,1,12, 1, 1, 5, 0.00,60.00,Friday
6,16.2
7,99.
8,1.3
9,50.
10,0.0
11,0.0
12,45636.1780297149
13,1.17741505324793
231,20.6447861323676
232,21.8387956361482
233,19.946907552733
234,19.0100356742249
235,20.1661874997146
236,19.9969714783199
237,22.4149162093274
238,21.2346961519847
239,20.5335408849373
240,19.6349228679767
241,20.5392831516709
727,-1.40107963008273
728,-1.03933449852254
729,-3.55341136450931
730,-1.96980452957958
731,-3.5388752658613
732,-1.2821992170071
733,-0.866564355546524
734,-0.97048488082109
735,-1.77090677162951
736,-1.4181610060727
737,-1.76735937161149
14,0.0
2,1,12, 1, 1, 6, 0.00,60.00,Friday
6,15.5
7,100.
8,1.2
9,50.
10,0.0
11,0.0
12,43869.1002337624
13,1.18222883959251
231,20.3731092316611
232,21.803982052626
233,20.3082323657986
234,18.4006817834143
235,20.1806660766009
236,19.4062811190232
237,22.130639493478
238,21.3000282166624
239,20.2014211805973
240,18.9666140831475
241,19.9011724278022
727,-1.48331730031786
728,-1.23836663515853
729,-4.26169218221533
730,-2.21187354680726
731,-4.15600367272179
732,-1.48069579828252
733,-1.00052549500631
734,-1.23977530126032
735,-1.88399459978767
736,-1.64395333904846
737,-1.96658396331722
14,0.0
2,1,12, 1, 1, 7, 0.00,60.00,Friday
6,16.7
7,100.
8,1.6
9,50.
10,74.
11,42.
12,47398.8195093146
13,1.17564842754675
231,20.7905159111804
232,21.8266854905798
233,20.4887088019215
234,19.3958022433366
235,20.2987390923411
236,20.1303633608023
237,22.4413819596279
238,21.4061795546925
239,20.819495970673
240,19.8011771617279
241,20.3140884724363
727,-1.56845081256312
728,-1.28224367908814
729,-4.20757133775602
730,-2.424176847837
731,-4.19762810347072
732,-1.62628368611555
733,-1.08076609087316
734,-1.25759136423693
735,-1.8883615480066
736,-1.8426624314963
737,-2.04765455407375
14,0.0
2,1,12, 1, 1, 8, 0.00,60.00,Friday
6,17.8
7,94.
8,2.1
9,50.
10,123.
11,122.
12,48771.4027814539
13,1.17102687141866
231,21.0062607097393
232,20.348131096387
233,20.3390725819404
234,20.5142238650017
235,20.4470502889814
236,21.0704663430621
237,20.3666629844287
238,21.1939254181712
239,20.7764834486694
240,20.4378806656212
241,21.1277349495854
727,-1.46862994376046
728,-1.27432176317896
729,-4.11141267213655
730,-2.20847515886616
731,-4.13909808717404
732,-1.45526508083296
733,-1.01308340080855
734,-1.23330958495141
735,-1.65517746906221
736,-1.65563585967012
737,-1.8248171172093
14,0.0
2,1,12, 1, 1, 9, 0.00,60.00,Friday
6,19.
7,83.
8,2.5
9,230.
10,241.
11,196.
12,48492.8374284966
13,1.16731392524557
231,21.3031341209812
232,21.3937959626697
233,21.1543344574806
234,20.0293657456456
235,21.1335196720079
236,20.8300084803757
237,20.4925024654244
238,21.2552688020812
239,20.9735890030161
240,20.140021926656
241,21.6018215457505
727,-1.42057984345178
728,-1.53294711965332
729,-4.16095904588501
730,-1.93961231814598
731,-4.14385108628907
732,-1.20108968867285
733,-1.40407791799936
734,-1.26784792126452
735,-1.38950032076548
736,-1.46120560228034
737,-1.37739423162377
14,0.0
2,1,12, 1, 1,10, 0.00,60.00,Friday
6,20.2
7,73.
8,2.9
9,230.
10,262.
11,153.
12,48155.486768991
13,1.16367406097817
231,21.6678356164105
232,22.0039838887057
233,22.2277239558412
234,20.7642309255091
235,22.1483412208769
236,21.4124053680859
237,20.6370252635607
238,21.6417927448233
239,21.7119856961163
240,20.8271180257123
241,22.6491466018172
727,-1.37983523708012
728,-1.33653652688182
729,-3.97522013383006
730,-2.06630399530569
731,-3.97808355189069
732,-1.2169930031364
733,-1.39498830614601
734,-1.28017083716526
735,-1.14842356295538
736,-1.5031688915802
737,-1.0814426145419
14,0.0
2,1,12, 1, 1,11, 0.00,60.00,Friday
6,21.3
7,64.
8,3.4
9,230.
10,279.
11,366.
12,47530.7432928801
13,1.16059169071855
231,22.0528134782254
232,22.4180657354394
233,22.8470133754447
234,21.6267381462559
235,22.786685895859
236,22.1897241818823
237,21.5342921791336
238,22.1352308664445
239,22.8696299272905
240,21.6931840828395
241,24.4554307887833
727,-1.32992273442471
728,-1.20942137918114
729,-3.68692087696905
730,-1.90911372466268
731,-3.7043074847444
732,-1.07562019198635
733,-1.40297478859241
734,-1.22113694631937
735,-0.686352334984028
736,-1.32209836014671
737,-0.508286097992075
14,0.0
2,1,12, 1, 1,12, 0.00,60.00,Friday
6,22.5
7,57.
8,3.8
9,230.
10,370.
11,277.
12,47652.1543227416
13,1.15667770609482
231,22.6053886092152
232,22.9779167974079
233,23.5491017983753
234,22.6620923538304
235,23.4914101087285
236,23.1420952616137
237,22.5822113594656
238,22.8942466918131
239,24.265478673595
240,22.7202551440105
241,26.1821864315724
727,-1.27689544770973
728,-1.13666478014079
729,-3.52899177504516
730,-1.70944173333929
731,-3.53938239318621
732,-0.870122269467712
733,-1.24701452969622
734,-1.13987933210189
735,-0.165377888322529
736,-1.08833006251663
737,0.127325210163006
14,0.0
2,1,12, 1, 1,13, 0.00,60.00,Friday
6,23.7
7,50.
8,4.2
9,230.
10,454.
11,453.
12,47435.7310700476
13,1.1530374812034
231,22.8687902019005
232,23.4664384235159
233,24.3036840987841
234,23.7701689480235
235,24.2207442115442
236,24.1865340292896
237,23.6260325830356
238,23.7585512699425
239,25.71400180765
240,23.8449815990105
241,28.1792571495111
727,-1.17614350164582
728,-1.01298671794391
729,-3.33200308610979
730,-1.43683630344969
731,-3.33902024134367
732,-0.597091843698425
733,-1.03637184148285
734,-0.984603648849148
735,0.501732385372137
736,-0.785209776553372
737,0.939424287452431
14,0.0
2,1,12, 1, 1,14, 0.00,60.00,Friday
6,24.8
7,44.
8,4.7
9,230.
10,381.
11,585.
12,47121.6187894778
13,1.14980923150504
231,23.0296310026398
232,23.9783173319064
233,25.0806170934415
234,24.8211704749421
235,25.0751978059762
236,25.1884683212381
237,24.4982706019869
238,24.8336761814221
239,26.9798994273049
240,24.9385014370203
241,29.6218557172277
727,-1.11899140701994
728,-0.884077805023984
729,-3.11661850231444
730,-1.15570659567426
731,-3.12775409621646
732,-0.334016460051846
733,-0.82252243648515
734,-0.807112792914205
735,1.10987835075312
736,-0.467563117299066
737,1.61434457240643
14,0.0
2,1,12, 1, 1,15, 0.00,60.00,Friday
6,26.
7,39.
8,5.1
9,180.
10,379.
11,415.
12,47263.5279944702
13,1.14596907730245
231,23.0280827364643
232,24.3282149835689
233,25.41997876712
234,25.9679426693936
235,25.4445834745772
236,26.1237939474718
237,25.1951440705659
238,25.2790638359267
239,27.5808203322209
240,26.001086212833
241,30.4183596982883
727,-1.08861260749699
728,-0.766014239946431
729,-2.89482052495423
730,-0.89817340959727
731,-2.87958487383866
732,-0.106104057722907
733,-0.643430006027909
734,-0.592616746987388
735,1.42898107609032
736,-0.182898855798318
737,1.87208239918428
14,0.0
2,1,12, 1, 1,16, 0.00,60.00,Friday
6,25.3
7,42.
8,4.7
9,180.
10,303.
11,512.
12,47236.5356009175
13,1.14931720217693
231,23.0734836806022
232,24.5530781830539
233,25.4690546918872
234,25.3778435649351
235,25.459910645029
236,25.8578970911863
237,25.172097075496
238,25.3237016395541
239,27.0590062100843
240,25.622817948009
241,29.050223367515
727,-1.08288474562517
728,-0.672085908181926
729,-2.76453018941268
730,-0.612968481710601
731,-2.74100267736402
732,9.207585878801354E-02
733,-0.49479551586113
734,-0.492687468043716
735,1.48392362458093
736,9.061051415801119E-02
737,1.90857621115652
14,0.0
2,1,12, 1, 1,17, 0.00,60.00,Friday
6,24.7
7,45.
8,4.4
9,180.
10,294.
11,258.
12,47371.1760904307
13,1.15109691741816
231,23.1042131881485
232,24.9217162051645
233,25.3138483544811
234,24.8375781196636
235,25.2959129800943
236,25.2984529845442
237,24.7187668346127
238,24.9125939547464
239,26.3915277391423
240,25.0180957915589
241,28.001185683335
727,-1.06948356516654
728,-0.602038145008948
729,-2.74404329690695
730,-0.710619468918868
731,-2.72317322286829
732,4.630871888159355E-02
733,-0.478656142784374
734,-0.463769800253736
735,1.16792302386116
736,3.500618354212937E-02
737,1.38216668085133
14,0.0
2,1,12, 1, 1,18, 0.00,60.00,Friday
6,24.
7,49.
8,4.
9,180.
10,129.
11,336.
12,47642.7039709527
13,1.15425564666028
231,23.1368631739703
232,24.5941778339125
233,25.0460350302185
234,24.2090058368126
235,25.0165117349296
236,24.7357889506789
237,24.0189548436985
238,24.3887479130528
239,25.5829975121041
240,24.4120980158718
241,26.7168463618184
727,-1.05951194146281
728,-0.514761575162206
729,-2.75830677183996
730,-0.805793311160377
731,-2.73725704403298
732,-9.949983594601265E-02
733,-0.556056848675107
734,-0.525206710660483
735,0.720907143984585
736,-0.102487384004108
737,0.840694472708859
14,0.0
2,1,12, 1, 1,19, 0.00,60.00,Friday
6,23.3
7,52.
8,3.7
9,180.
10,76.
11,124.
12,47342.8975825288
13,1.15668182826377
231,23.1606123840447
232,24.2420590273464
233,24.6566397413026
234,23.6023998103777
235,24.6070549763447
236,24.1639613323253
237,23.3605673099182
238,23.9216373626115
239,24.350087533665
240,23.776546564619
241,27.3380681785696
727,-1.04934121126974
728,-0.55893835804051
729,-2.79933021231183
730,-0.945746863376514
731,-2.78106673719311
732,-0.252406380807215
733,-0.665150765629447
734,-0.613352882331955
735,0.204483792804041
736,-0.275459901803534
737,0.270060963014987
14,0.0
2,1,12, 1, 1,20, 0.00,60.00,Friday
6,22.7
7,56.
8,3.3
9,180.
10,0.0
11,0.0
12,47665.175252509
13,1.15835264824209
231,23.0353993377055
232,24.2170355144778
233,24.4579128289615
234,23.3089310172778
235,24.4191589220022
236,23.890249380186
237,23.757673210027
238,23.9199204682138
239,23.636148973786
240,23.4173320685388
241,25.7243942732466
727,-1.04108282807054
728,-0.629229362707872
729,-2.88366736633683
730,-1.11136031215611
731,-2.8724482765165
732,-0.424565671706295
733,-0.817855397510199
734,-0.702927429514047
735,-0.342234689431048
736,-0.490171024114459
737,0.169124292792499
14,0.0
2,1,12, 1, 1,21, 0.00,60.00,Friday
6,22.
7,60.
8,3.
9,180.
10,0.0
11,0.0
12,47598.6833989764
13,1.16179215701291
231,22.8352087060888
232,24.0360677719263
233,23.9400584856335
234,22.7750117559767
235,23.911499238132
236,23.4561705793113
237,23.3789759130853
238,23.7263478203431
239,23.0124357914993
240,22.9296164681421
241,24.6906107352563
727,-1.05736189646984
728,-0.645708198493814
729,-2.90970161235492
730,-1.18457914214036
731,-2.89646024281675
732,-0.516390647759625
733,-0.748162269912695
734,-0.701699990883269
735,-0.691342866203521
736,-0.623497187303549
737,-0.307248414080233
14,0.0
2,1,12, 1, 1,22, 0.00,60.00,Friday
6,21.5
7,63.
8,3.
9,180.
10,0.0
11,0.0
12,47537.1712789335
13,1.16460088701969
231,22.7265049667538
232,23.9774982050256
233,23.608821119058
234,22.3440672375582
235,23.5662932793171
236,23.0583527172272
237,23.0720532125591
238,23.7471508828903
239,22.4813402788678
240,22.4917681086635
241,23.7969747082573
727,-1.08539880264222
728,-0.696050090747118
729,-3.03195715839044
730,-1.31811861107396
731,-3.01838540114089
732,-0.635141795047515
733,-0.82664456811822
734,-0.739397787299842
735,-0.966285897506743
736,-0.777766927281453
737,-0.63885835247319
14,0.0
2,1,12, 1, 1,23, 0.00,60.00,Friday
6,21.
7,65.
8,3.
9,180.
10,0.0
11,0.0
12,47040.4857177395
13,1.16656943279966
231,22.6300430480232
232,23.6525706469259
233,23.3111419377479
234,21.8833585941356
235,23.2574295099328
236,22.5108653962032
237,22.6091395566479
238,23.3738555513817
239,21.9655511516055
240,21.9345926026698
241,23.0572655808084
727,-1.09860506587258
728,-0.7222238025273
729,-3.11320673030458
730,-1.43289380594085
731,-3.10625154152492
732,-0.745860293955615
733,-0.895146540990321
734,-0.736939447225123
735,-1.18079380665157
736,-0.916652545350247
737,-0.921818347549852
14,0.0
2,1,12, 1, 1,24, 0.00,60.00,Friday
6,20.5
7,68.
8,3.
9,180.
10,0.0
11,0.0
12,46882.2774568182
13,1.16946545192184
231,22.5036623560958
232,23.4490058688468
233,22.98393608994
234,21.4543950571093
235,22.9200874396753
236,22.1047304368528
237,22.2712493745249
238,23.1119246024351
239,21.492901250648
240,21.4901360613614
241,22.3939259502339
727,-1.11284325003957
728,-0.796927662700587
729,-3.20228780814616
730,-1.56196012888552
731,-3.20171269687796
732,-0.88578980392791
733,-0.9965743532545
734,-0.813169720504885
735,-1.37372148998928
736,-1.07675866339117
737,-1.1521445605905
14,0.0
End of Data
 Number of Records Written=         744
